<?xml version="1.0"?>
<VTKFile type="UnstructuredGrid"  version="0.1"  >
<UnstructuredGrid>
<Piece  NumberOfPoints="1089" NumberOfCells="2048">
<Points>
<DataArray  type="Float64"  NumberOfComponents="3"  format="ascii">0 0 0  0.03125 0 0  0.0625 0 0  0.09375 0 0  0.125 0 0  0.15625 0 0  0.1875 0 0  0.21875 0 0  0.25 0 0  0.28125 0 0  0.3125 0 0  0.34375 0 0  0.375 0 0  0.40625 0 0  0.4375 0 0  0.46875 0 0  0.5 0 0  0.53125 0 0  0.5625 0 0  0.59375 0 0  0.625 0 0  0.65625 0 0  0.6875 0 0  0.71875 0 0  0.75 0 0  0.78125 0 0  0.8125 0 0  0.84375 0 0  0.875 0 0  0.90625 0 0  0.9375 0 0  0.96875 0 0  1 0 0  0 0.03125 0  0.03125 0.03125 0  0.0625 0.03125 0  0.09375 0.03125 0  0.125 0.03125 0  0.15625 0.03125 0  0.1875 0.03125 0  0.21875 0.03125 0  0.25 0.03125 0  0.28125 0.03125 0  0.3125 0.03125 0  0.34375 0.03125 0  0.375 0.03125 0  0.40625 0.03125 0  0.4375 0.03125 0  0.46875 0.03125 0  0.5 0.03125 0  0.53125 0.03125 0  0.5625 0.03125 0  0.59375 0.03125 0  0.625 0.03125 0  0.65625 0.03125 0  0.6875 0.03125 0  0.71875 0.03125 0  0.75 0.03125 0  0.78125 0.03125 0  0.8125 0.03125 0  0.84375 0.03125 0  0.875 0.03125 0  0.90625 0.03125 0  0.9375 0.03125 0  0.96875 0.03125 0  1 0.03125 0  0 0.0625 0  0.03125 0.0625 0  0.0625 0.0625 0  0.09375 0.0625 0  0.125 0.0625 0  0.15625 0.0625 0  0.1875 0.0625 0  0.21875 0.0625 0  0.25 0.0625 0  0.28125 0.0625 0  0.3125 0.0625 0  0.34375 0.0625 0  0.375 0.0625 0  0.40625 0.0625 0  0.4375 0.0625 0  0.46875 0.0625 0  0.5 0.0625 0  0.53125 0.0625 0  0.5625 0.0625 0  0.59375 0.0625 0  0.625 0.0625 0  0.65625 0.0625 0  0.6875 0.0625 0  0.71875 0.0625 0  0.75 0.0625 0  0.78125 0.0625 0  0.8125 0.0625 0  0.84375 0.0625 0  0.875 0.0625 0  0.90625 0.0625 0  0.9375 0.0625 0  0.96875 0.0625 0  1 0.0625 0  0 0.09375 0  0.03125 0.09375 0  0.0625 0.09375 0  0.09375 0.09375 0  0.125 0.09375 0  0.15625 0.09375 0  0.1875 0.09375 0  0.21875 0.09375 0  0.25 0.09375 0  0.28125 0.09375 0  0.3125 0.09375 0  0.34375 0.09375 0  0.375 0.09375 0  0.40625 0.09375 0  0.4375 0.09375 0  0.46875 0.09375 0  0.5 0.09375 0  0.53125 0.09375 0  0.5625 0.09375 0  0.59375 0.09375 0  0.625 0.09375 0  0.65625 0.09375 0  0.6875 0.09375 0  0.71875 0.09375 0  0.75 0.09375 0  0.78125 0.09375 0  0.8125 0.09375 0  0.84375 0.09375 0  0.875 0.09375 0  0.90625 0.09375 0  0.9375 0.09375 0  0.96875 0.09375 0  1 0.09375 0  0 0.125 0  0.03125 0.125 0  0.0625 0.125 0  0.09375 0.125 0  0.125 0.125 0  0.15625 0.125 0  0.1875 0.125 0  0.21875 0.125 0  0.25 0.125 0  0.28125 0.125 0  0.3125 0.125 0  0.34375 0.125 0  0.375 0.125 0  0.40625 0.125 0  0.4375 0.125 0  0.46875 0.125 0  0.5 0.125 0  0.53125 0.125 0  0.5625 0.125 0  0.59375 0.125 0  0.625 0.125 0  0.65625 0.125 0  0.6875 0.125 0  0.71875 0.125 0  0.75 0.125 0  0.78125 0.125 0  0.8125 0.125 0  0.84375 0.125 0  0.875 0.125 0  0.90625 0.125 0  0.9375 0.125 0  0.96875 0.125 0  1 0.125 0  0 0.15625 0  0.03125 0.15625 0  0.0625 0.15625 0  0.09375 0.15625 0  0.125 0.15625 0  0.15625 0.15625 0  0.1875 0.15625 0  0.21875 0.15625 0  0.25 0.15625 0  0.28125 0.15625 0  0.3125 0.15625 0  0.34375 0.15625 0  0.375 0.15625 0  0.40625 0.15625 0  0.4375 0.15625 0  0.46875 0.15625 0  0.5 0.15625 0  0.53125 0.15625 0  0.5625 0.15625 0  0.59375 0.15625 0  0.625 0.15625 0  0.65625 0.15625 0  0.6875 0.15625 0  0.71875 0.15625 0  0.75 0.15625 0  0.78125 0.15625 0  0.8125 0.15625 0  0.84375 0.15625 0  0.875 0.15625 0  0.90625 0.15625 0  0.9375 0.15625 0  0.96875 0.15625 0  1 0.15625 0  0 0.1875 0  0.03125 0.1875 0  0.0625 0.1875 0  0.09375 0.1875 0  0.125 0.1875 0  0.15625 0.1875 0  0.1875 0.1875 0  0.21875 0.1875 0  0.25 0.1875 0  0.28125 0.1875 0  0.3125 0.1875 0  0.34375 0.1875 0  0.375 0.1875 0  0.40625 0.1875 0  0.4375 0.1875 0  0.46875 0.1875 0  0.5 0.1875 0  0.53125 0.1875 0  0.5625 0.1875 0  0.59375 0.1875 0  0.625 0.1875 0  0.65625 0.1875 0  0.6875 0.1875 0  0.71875 0.1875 0  0.75 0.1875 0  0.78125 0.1875 0  0.8125 0.1875 0  0.84375 0.1875 0  0.875 0.1875 0  0.90625 0.1875 0  0.9375 0.1875 0  0.96875 0.1875 0  1 0.1875 0  0 0.21875 0  0.03125 0.21875 0  0.0625 0.21875 0  0.09375 0.21875 0  0.125 0.21875 0  0.15625 0.21875 0  0.1875 0.21875 0  0.21875 0.21875 0  0.25 0.21875 0  0.28125 0.21875 0  0.3125 0.21875 0  0.34375 0.21875 0  0.375 0.21875 0  0.40625 0.21875 0  0.4375 0.21875 0  0.46875 0.21875 0  0.5 0.21875 0  0.53125 0.21875 0  0.5625 0.21875 0  0.59375 0.21875 0  0.625 0.21875 0  0.65625 0.21875 0  0.6875 0.21875 0  0.71875 0.21875 0  0.75 0.21875 0  0.78125 0.21875 0  0.8125 0.21875 0  0.84375 0.21875 0  0.875 0.21875 0  0.90625 0.21875 0  0.9375 0.21875 0  0.96875 0.21875 0  1 0.21875 0  0 0.25 0  0.03125 0.25 0  0.0625 0.25 0  0.09375 0.25 0  0.125 0.25 0  0.15625 0.25 0  0.1875 0.25 0  0.21875 0.25 0  0.25 0.25 0  0.28125 0.25 0  0.3125 0.25 0  0.34375 0.25 0  0.375 0.25 0  0.40625 0.25 0  0.4375 0.25 0  0.46875 0.25 0  0.5 0.25 0  0.53125 0.25 0  0.5625 0.25 0  0.59375 0.25 0  0.625 0.25 0  0.65625 0.25 0  0.6875 0.25 0  0.71875 0.25 0  0.75 0.25 0  0.78125 0.25 0  0.8125 0.25 0  0.84375 0.25 0  0.875 0.25 0  0.90625 0.25 0  0.9375 0.25 0  0.96875 0.25 0  1 0.25 0  0 0.28125 0  0.03125 0.28125 0  0.0625 0.28125 0  0.09375 0.28125 0  0.125 0.28125 0  0.15625 0.28125 0  0.1875 0.28125 0  0.21875 0.28125 0  0.25 0.28125 0  0.28125 0.28125 0  0.3125 0.28125 0  0.34375 0.28125 0  0.375 0.28125 0  0.40625 0.28125 0  0.4375 0.28125 0  0.46875 0.28125 0  0.5 0.28125 0  0.53125 0.28125 0  0.5625 0.28125 0  0.59375 0.28125 0  0.625 0.28125 0  0.65625 0.28125 0  0.6875 0.28125 0  0.71875 0.28125 0  0.75 0.28125 0  0.78125 0.28125 0  0.8125 0.28125 0  0.84375 0.28125 0  0.875 0.28125 0  0.90625 0.28125 0  0.9375 0.28125 0  0.96875 0.28125 0  1 0.28125 0  0 0.3125 0  0.03125 0.3125 0  0.0625 0.3125 0  0.09375 0.3125 0  0.125 0.3125 0  0.15625 0.3125 0  0.1875 0.3125 0  0.21875 0.3125 0  0.25 0.3125 0  0.28125 0.3125 0  0.3125 0.3125 0  0.34375 0.3125 0  0.375 0.3125 0  0.40625 0.3125 0  0.4375 0.3125 0  0.46875 0.3125 0  0.5 0.3125 0  0.53125 0.3125 0  0.5625 0.3125 0  0.59375 0.3125 0  0.625 0.3125 0  0.65625 0.3125 0  0.6875 0.3125 0  0.71875 0.3125 0  0.75 0.3125 0  0.78125 0.3125 0  0.8125 0.3125 0  0.84375 0.3125 0  0.875 0.3125 0  0.90625 0.3125 0  0.9375 0.3125 0  0.96875 0.3125 0  1 0.3125 0  0 0.34375 0  0.03125 0.34375 0  0.0625 0.34375 0  0.09375 0.34375 0  0.125 0.34375 0  0.15625 0.34375 0  0.1875 0.34375 0  0.21875 0.34375 0  0.25 0.34375 0  0.28125 0.34375 0  0.3125 0.34375 0  0.34375 0.34375 0  0.375 0.34375 0  0.40625 0.34375 0  0.4375 0.34375 0  0.46875 0.34375 0  0.5 0.34375 0  0.53125 0.34375 0  0.5625 0.34375 0  0.59375 0.34375 0  0.625 0.34375 0  0.65625 0.34375 0  0.6875 0.34375 0  0.71875 0.34375 0  0.75 0.34375 0  0.78125 0.34375 0  0.8125 0.34375 0  0.84375 0.34375 0  0.875 0.34375 0  0.90625 0.34375 0  0.9375 0.34375 0  0.96875 0.34375 0  1 0.34375 0  0 0.375 0  0.03125 0.375 0  0.0625 0.375 0  0.09375 0.375 0  0.125 0.375 0  0.15625 0.375 0  0.1875 0.375 0  0.21875 0.375 0  0.25 0.375 0  0.28125 0.375 0  0.3125 0.375 0  0.34375 0.375 0  0.375 0.375 0  0.40625 0.375 0  0.4375 0.375 0  0.46875 0.375 0  0.5 0.375 0  0.53125 0.375 0  0.5625 0.375 0  0.59375 0.375 0  0.625 0.375 0  0.65625 0.375 0  0.6875 0.375 0  0.71875 0.375 0  0.75 0.375 0  0.78125 0.375 0  0.8125 0.375 0  0.84375 0.375 0  0.875 0.375 0  0.90625 0.375 0  0.9375 0.375 0  0.96875 0.375 0  1 0.375 0  0 0.40625 0  0.03125 0.40625 0  0.0625 0.40625 0  0.09375 0.40625 0  0.125 0.40625 0  0.15625 0.40625 0  0.1875 0.40625 0  0.21875 0.40625 0  0.25 0.40625 0  0.28125 0.40625 0  0.3125 0.40625 0  0.34375 0.40625 0  0.375 0.40625 0  0.40625 0.40625 0  0.4375 0.40625 0  0.46875 0.40625 0  0.5 0.40625 0  0.53125 0.40625 0  0.5625 0.40625 0  0.59375 0.40625 0  0.625 0.40625 0  0.65625 0.40625 0  0.6875 0.40625 0  0.71875 0.40625 0  0.75 0.40625 0  0.78125 0.40625 0  0.8125 0.40625 0  0.84375 0.40625 0  0.875 0.40625 0  0.90625 0.40625 0  0.9375 0.40625 0  0.96875 0.40625 0  1 0.40625 0  0 0.4375 0  0.03125 0.4375 0  0.0625 0.4375 0  0.09375 0.4375 0  0.125 0.4375 0  0.15625 0.4375 0  0.1875 0.4375 0  0.21875 0.4375 0  0.25 0.4375 0  0.28125 0.4375 0  0.3125 0.4375 0  0.34375 0.4375 0  0.375 0.4375 0  0.40625 0.4375 0  0.4375 0.4375 0  0.46875 0.4375 0  0.5 0.4375 0  0.53125 0.4375 0  0.5625 0.4375 0  0.59375 0.4375 0  0.625 0.4375 0  0.65625 0.4375 0  0.6875 0.4375 0  0.71875 0.4375 0  0.75 0.4375 0  0.78125 0.4375 0  0.8125 0.4375 0  0.84375 0.4375 0  0.875 0.4375 0  0.90625 0.4375 0  0.9375 0.4375 0  0.96875 0.4375 0  1 0.4375 0  0 0.46875 0  0.03125 0.46875 0  0.0625 0.46875 0  0.09375 0.46875 0  0.125 0.46875 0  0.15625 0.46875 0  0.1875 0.46875 0  0.21875 0.46875 0  0.25 0.46875 0  0.28125 0.46875 0  0.3125 0.46875 0  0.34375 0.46875 0  0.375 0.46875 0  0.40625 0.46875 0  0.4375 0.46875 0  0.46875 0.46875 0  0.5 0.46875 0  0.53125 0.46875 0  0.5625 0.46875 0  0.59375 0.46875 0  0.625 0.46875 0  0.65625 0.46875 0  0.6875 0.46875 0  0.71875 0.46875 0  0.75 0.46875 0  0.78125 0.46875 0  0.8125 0.46875 0  0.84375 0.46875 0  0.875 0.46875 0  0.90625 0.46875 0  0.9375 0.46875 0  0.96875 0.46875 0  1 0.46875 0  0 0.5 0  0.03125 0.5 0  0.0625 0.5 0  0.09375 0.5 0  0.125 0.5 0  0.15625 0.5 0  0.1875 0.5 0  0.21875 0.5 0  0.25 0.5 0  0.28125 0.5 0  0.3125 0.5 0  0.34375 0.5 0  0.375 0.5 0  0.40625 0.5 0  0.4375 0.5 0  0.46875 0.5 0  0.5 0.5 0  0.53125 0.5 0  0.5625 0.5 0  0.59375 0.5 0  0.625 0.5 0  0.65625 0.5 0  0.6875 0.5 0  0.71875 0.5 0  0.75 0.5 0  0.78125 0.5 0  0.8125 0.5 0  0.84375 0.5 0  0.875 0.5 0  0.90625 0.5 0  0.9375 0.5 0  0.96875 0.5 0  1 0.5 0  0 0.53125 0  0.03125 0.53125 0  0.0625 0.53125 0  0.09375 0.53125 0  0.125 0.53125 0  0.15625 0.53125 0  0.1875 0.53125 0  0.21875 0.53125 0  0.25 0.53125 0  0.28125 0.53125 0  0.3125 0.53125 0  0.34375 0.53125 0  0.375 0.53125 0  0.40625 0.53125 0  0.4375 0.53125 0  0.46875 0.53125 0  0.5 0.53125 0  0.53125 0.53125 0  0.5625 0.53125 0  0.59375 0.53125 0  0.625 0.53125 0  0.65625 0.53125 0  0.6875 0.53125 0  0.71875 0.53125 0  0.75 0.53125 0  0.78125 0.531
[...]
<PointData  Scalars="u"> 
<DataArray  type="Float64"  Name="u"  format="ascii">1.0000000000000000e+00  1.4194538872935343e+00  1.5896769272534397e+00  1.6308674745446177e+00  1.6015836806356303e+00  1.5393008977872766e+00  1.4684135606508386e+00  1.4026956453125998e+00  1.3478999826369065e+00  1.3047656340812446e+00  1.2716432523169783e+00  1.2462409726020125e+00  1.2264932257006467e+00  1.2108307403800291e+00  1.1981543292253283e+00  1.1877161166013914e+00  1.1790044184113437e+00  1.1716602139100796e+00  1.1654234735630249e+00  1.1601001723417026e+00  1.1555419571613501e+00  1.1516332380778220e+00  1.1482826695707784e+00  1.1454173202580979e+00  1.1429785619681638e+00  1.1409191042087781e+00  1.1392008187098717e+00  1.1377931253826985e+00  1.1366717880643296e+00  1.1358180173309527e+00  1.1352178099297325e+00  1.1348614764439060e+00  1.1347433244910667e+00  1.0000000000000000e+00  1.2462959596993526e+00  1.3958647566599245e+00  1.4622204656108393e+00  1.4716900653339222e+00  1.4479753407402693e+00  1.4089991766261210e+00  1.3665094285882695e+00  1.3269567865504737e+00  1.2929971752544915e+00  1.2650302789647847e+00  1.2423941854866349e+00  1.2241071134525210e+00  1.2092324334100277e+00  1.1970058815911846e+00  1.1868454167833145e+00  1.1783189548248090e+00  1.1711061216691807e+00  1.1649666852804357e+00  1.1597176173973387e+00  1.1552172072315692e+00  1.1513541625196737e+00  1.1480400599383929e+00  1.1452040247425503e+00  1.1427889117024399e+00  1.1407485180784935e+00  1.1390455226240011e+00  1.1376499473782959e+00  1.1365380047718339e+00  1.1356912356648743e+00  1.1350958729720357e+00  1.1347423856774126e+00  1.1346251725382275e+00  1.0000000000000000e+00  1.1612471592959386e+00  1.2777766428517743e+00  1.3445390714086440e+00  1.3707227670034559e+00  1.3691252816387542e+00  1.3514401053880638e+00  1.3264881456420332e+00  1.2999781999023667e+00  1.2750377534457016e+00  1.2530056766408675e+00  1.2341683992143739e+00  1.2182984948391054e+00  1.2049828939352447e+00  1.1937904802855361e+00  1.1843404940341946e+00  1.1763198116027000e+00  1.1694786219831304e+00  1.1636195264522105e+00  1.1585864043812499e+00  1.1542550917919323e+00  1.1505261448228705e+00  1.1473193829195187e+00  1.1445698070711461e+00  1.1422245420205392e+00  1.1402405337787540e+00  1.1385828063293426e+00  1.1372231367346504e+00  1.1361390479798352e+00  1.1353130475846751e+00  1.1347320606161246e+00  1.1343870207554809e+00  1.1342725943070178e+00  1.0000000000000000e+00  1.1134270034083353e+00  1.2029379449925661e+00  1.2622761621737064e+00  1.2938198634752609e+00  1.3039274462590598e+00  1.2996959896753120e+00  1.2872375023478773e+00  1.2710416662703763e+00  1.2539956159839272e+00  1.2377150882793391e+00  1.2229487984928296e+00  1.2099266384949610e+00  1.1986074211649533e+00  1.1888318838441272e+00  1.1804060722315717e+00  1.1731411304133539e+00  1.1668690187100941e+00  1.1614463923470888e+00  1.1567533815674718e+00  1.1526906106820536e+00  1.1491759420531695e+00  1.1461415198447260e+00  1.1435312786018645e+00  1.1412989155298048e+00  1.1394062686866391e+00  1.1378220321799652e+00  1.1365207452511277e+00  1.1354820028281818e+00  1.1346898460778669e+00  1.1341323011523070e+00  1.1338010424213687e+00  1.1336911631788822e+00  1.0000000000000000e+00  1.0836024148485877e+00  1.1531117235416484e+00  1.2037161095322535e+00  1.2354015584471003e+00  1.2511317370795678e+00  1.2550225453807073e+00  1.2510961599817805e+00  1.2426450285421160e+00  1.2320484693479461e+00  1.2208532244013239e+00  1.2099638509653037e+00  1.1998446600619539e+00  1.1906860585449708e+00  1.1825229429947590e+00  1.1753106230826256e+00  1.1689695826196298e+00  1.1634099224111658e+00  1.1585436411865038e+00  1.1542901186031163e+00  1.1505780272750425e+00  1.1473454928571847e+00  1.1445394758035876e+00  1.1421148719616900e+00  1.1400335728101667e+00  1.1382635932580314e+00  1.1367783084527521e+00  1.1355558092617144e+00  1.1345783720038973e+00  1.1338320327463038e+00  1.1333062554938673e+00  1.1329936845988053e+00  1.1328899735657729e+00  1.0000000000000000e+00  1.0636129250988726e+00  1.1184736386359442e+00  1.1611234739488374e+00  1.1908062554228815e+00  1.2087740166980290e+00  1.2173284009934646e+00  1.2190238018543005e+00  1.2161682908767208e+00  1.2105984843168196e+00  1.2036439134257197e+00  1.1961932328747045e+00  1.1887968438192773e+00  1.1817675921793644e+00  1.1752627529351192e+00  1.1693437788236567e+00  1.1640166277480979e+00  1.1592574414713672e+00  1.1550281302997401e+00  1.1512854241942669e+00  1.1479858869278243e+00  1.1450885262926167e+00  1.1425560185501833e+00  1.1403551606310740e+00  1.1384569104911337e+00  1.1368362230825668e+00  1.1354717991112975e+00  1.1343458113390803e+00  1.1334436431793893e+00  1.1327536574095838e+00  1.1322670034780531e+00  1.1319774669142124e+00  1.1318813618865995e+00  1.0000000000000000e+00  1.0495897053359591e+00  1.0936109647902506e+00  1.1295609790369263e+00  1.1565245910641853e+00  1.1749072694799985e+00  1.1859409041267754e+00  1.1912014705829550e+00  1.1922567382258047e+00  1.1904660402336238e+00  1.1869031427286514e+00  1.1823580380090428e+00  1.1773783997861642e+00  1.1723236360203375e+00  1.1674163952564198e+00  1.1627850342900670e+00  1.1584956901413506e+00  1.1545750816387874e+00  1.1510260136195223e+00  1.1478375608194118e+00  1.1449915699292172e+00  1.1424667068323684e+00  1.1402409114730740e+00  1.1382928415212443e+00  1.1366026854407234e+00  1.1351525894698051e+00  1.1339268535707894e+00  1.1329119938039205e+00  1.1320967319649957e+00  1.1314719502345885e+00  1.1310306340945500e+00  1.1307678176933915e+00  1.1306805401522002e+00  1.0000000000000000e+00  1.0394766603176706e+00  1.0753677081821373e+00  1.1058285270188941e+00  1.1299859665242278e+00  1.1478372301169586e+00  1.1599952420727209e+00  1.1674037298356241e+00  1.1711014641480544e+00  1.1720653025331866e+00  1.1711279481072259e+00  1.1689511631239129e+00  1.1660329696948450e+00  1.1627315041447033e+00  1.1592939742749793e+00  1.1558842260187168e+00  1.1526060059784420e+00  1.1495211790160984e+00  1.1466632812766600e+00  1.1440472354571234e+00  1.1416761251249472e+00  1.1395458196327868e+00  1.1376480789882666e+00  1.1359726085400781e+00  1.1345084002807071e+00  1.1332445957851416e+00  1.1321710318981348e+00  1.1312785783408155e+00  1.1305593406420846e+00  1.1300067774692255e+00  1.1296157649721665e+00  1.1293826296126031e+00  1.1293051633354179e+00  1.0000000000000000e+00  1.0320512675307358e+00  1.0617673342601779e+00  1.0877714065102781e+00  1.1092977560947563e+00  1.1261595574086056e+00  1.1386183959222105e+00  1.1472180086326949e+00  1.1526310111837594e+00  1.1555435682283339e+00  1.1565830573023441e+00  1.1562822819826015e+00  1.1550696496385062e+00  1.1532750768807813e+00  1.1511436704144735e+00  1.1488518636047989e+00  1.1465229227013511e+00  1.1442403458926163e+00  1.1420586967679243e+00  1.1400119745644317e+00  1.1381198754738151e+00  1.1363923675845751e+00  1.1348329763069973e+00  1.1334411133700784e+00  1.1322137113568838e+00  1.1311463614919186e+00  1.1302340998957936e+00  1.1294719470191226e+00  1.1288552747933016e+00  1.1283800540280622e+00  1.1280430187122874e+00  1.1278417724494363e+00  1.1277748539642656e+00  1.0000000000000000e+00  1.0265187157252342e+00  1.0514905071166785e+00  1.0738816903620647e+00  1.0930485662442742e+00  1.1087357369326578e+00  1.1210110885129563e+00  1.1301698227753423e+00  1.1366365757652863e+00  1.1408838406281570e+00  1.1433738747434139e+00  1.1445235508043963e+00  1.1446876882432921e+00  1.1441553030065101e+00  1.1431537160660703e+00  1.1418566222536981e+00  1.1403934722918563e+00  1.1388585844412238e+00  1.1373191852139111e+00  1.1358220905371279e+00  1.1343990346178447e+00  1.1330707989241999e+00  1.1318503452850031e+00  1.1307451572763461e+00  1.1297589702848310e+00  1.1288930389298553e+00  1.1281470591739986e+00  1.1275198350465792e+00  1.1270097574839375e+00  1.1266151451374347e+00  1.1263344833994844e+00  1.1261665875085893e+00  1.1261107076227723e+00  1.0000000000000000e+00  1.0223348402777594e+00  1.0436199421180841e+00  1.0630767949846827e+00  1.0801775574400203e+00  1.0946565121815270e+00  1.1064799052915810e+00  1.1157914287749233e+00  1.1228505672079974e+00  1.1279763279062036e+00  1.1315029812659760e+00  1.1337495819799333e+00  1.1350019846155506e+00  1.1355046486154556e+00  1.1354592453816896e+00  1.1350274310950061e+00  1.1343357583807752e+00  1.1334813340714602e+00  1.1325373690524447e+00  1.1315581677423405e+00  1.1305833735346456e+00  1.1296414482091475e+00  1.1287524486324387e+00  1.1279302001654692e+00  1.1271839735762377e+00  1.1265197647686735e+00  1.1259412628237664e+00  1.1254505765092582e+00  1.1250487749584348e+00  1.1247362856382543e+00  1.1245131822396259e+00  1.1243793865626650e+00  1.1243348015096448e+00  1.0000000000000000e+00  1.0191198771075529e+00  1.0375064394339444e+00  1.0545709524201539e+00  1.0698867807626100e+00  1.0832052796804681e+00  1.0944439605579250e+00  1.1036562930839644e+00  1.1109933802377745e+00  1.1166658535499017e+00  1.1209112858206438e+00  1.1239694901467399e+00  1.1260659099024715e+00  1.1274020273588792e+00  1.1281511761129397e+00  1.1284580958870771e+00  1.1284407954860045e+00  1.1281936242884343e+00  1.1277907891583181e+00  1.1272898378409746e+00  1.1267348435685840e+00  1.1261591717452091e+00  1.1255878008701223e+00  1.1250392211768514e+00  1.1245269590859768e+00  1.1240607837448351e+00  1.1236476508431359e+00  1.1232924332082519e+00  1.1229984802022888e+00  1.1227680402175217e+00  1.1226025733580993e+00  1.1225029749927999e+00  1.1224697252904772e+00  1.0000000000000000e+00  1.0166082510056593e+00  1.0326885446919269e+00  1.0477925774820382e+00  1.0615778454793952e+00  1.0738235799403359e+00  1.0844281506529476e+00  1.0933929880632953e+00  1.1007991000479882e+00  1.1067816439666407e+00  1.1115064972328874e+00  1.1151510620857985e+00  1.1178900961555565e+00  1.1198863619426207e+00  1.1212853321844518e+00  1.1222129799178360e+00  1.1227757031686312e+00  1.1230615783913538e+00  1.1231423254424084e+00  1.1230755508930703e+00  1.1229069911532543e+00  1.1226725943329465e+00  1.1224003619259859e+00  1.1221119245858380e+00  1.1218238578459836e+00  1.1215487602815550e+00  1.1212961235956900e+00  1.1210730252783250e+00  1.1208846724249468e+00  1.1207348216714443e+00  1.1206260959824497e+00  1.1205602147599592e+00  1.1205381496666638e+00  1.0000000000000000e+00  1.0146144678494886e+00  1.0288379765867457e+00  1.0423257879156749e+00  1.0548031953092945e+00  1.0660795535736112e+00  1.0760499624490802e+00  1.0846872463821882e+00  1.0920278061717381e+00  1.0981548601275810e+00  1.1031818873374144e+00  1.1072381234748507e+00  1.1104570365303112e+00  1.1129679876594700e+00  1.1148908095143650e+00  1.1163327881091576e+00  1.1173874588039079e+00  1.1181346606498821e+00  1.1186413833237836e+00  1.1189630491350981e+00  1.1191449758183292e+00  1.1192238525073244e+00  1.1192291279150353e+00  1.1191842573945303e+00  1.1191077874305646e+00  1.1190142759397119e+00  1.1189150579797438e+00  1.1188188718844116e+00  1.1187323625477295e+00  1.1186604780608607e+00  1.1186067741402956e+00  1.1185736383979232e+00  1.1185624438562600e+00  1.0000000000000000e+00  1.0130085395244162e+00  1.0257203598485367e+00  1.0378671924441110e+00  1.0492279764896437e+00  1.0596403991979819e+00  1.0690042464728751e+00  1.0772778691367684e+00  1.0844698378102628e+00  1.0906280208140910e+00  1.0958280344151452e+00  1.1001624950838487e+00  1.1037319344192393e+00  1.1066377412742368e+00  1.1089771297139772e+00  1.1108399040998349e+00  1.1123066832643529e+00  1.1134482220754522e+00  1.1143254980667696e+00  1.1149902865050383e+00  1.1154860104776114e+00  1.1158487119629839e+00  1.1161080398323002e+00  1.1162881896466827e+00  1.1164087585420313e+00  1.1164854980669860e+00  1.1165309604991587e+00  1.1165550417318499e+00  1.1165654278206978e+00  1.1165679538839735e+00  1.1165668841199492e+00  1.1165651208351783e+00  1.1165643489625299e+00  1.0000000000000000e+00  1.0116984637391078e+00  1.0231669631014801e+00  1.0341940268229015e+00  1.0446006654349942e+00  1.0542495177695199e+00  1.0630485716024931e+00  1.0709500446161446e+00  1.0779456042871896e+00  1.0840593276954644e+00  1.0893397247879404e+00  1.0938518843864979e+00  1.0976704635385175e+00  1.1008739129138576e+00  1.1035400638566066e+00  1.1057430152832293e+00  1.1075511480714983e+00  1.1090260463193711e+00  1.1102221003625266e+00  1.1111865883406256e+00  1.1119600676240866e+00  1.1125769450346987e+00  1.1130661298044990e+00  1.1134517028178694e+00  1.1137535590238912e+00  1.1139879972870430e+00  1.1141682442180549e+00  1.1143049067231321e+00  1.1144063531192381e+00  1.1144790255343850e+00  1.1145276876203494e+00  1.1145556118603113e+00  1.1145647103235028e+00  1.0000000000000000e+00  1.0106181322488561e+00  1.0210548067617180e+00  1.0311411287590357e+00  1.0407310249970272e+00  1.0497083576038917e+00  1.0579904306313095e+00  1.0655281075115519e+00  1.0723031939959291e+00  1.0783239549355765e+00  1.0836196501778705e+00  1.0882348531991641e+00  1.0922241221124513e+00  1.0956473828853832e+00  1.0985661974867391e+00  1.1010409450975787e+00  1.1031288474173013e+00  1.1048827147676361e+00  1.1063502687232680e+00  1.1075738988708361e+00  1.1085907266434092e+00  1.1094328707472254e+00  1.1101278315331280e+00  1.1106989327964054e+00  1.1111657774486217e+00  1.1115446878392399e+00  1.1118491123628866e+00  1.1120899878233841e+00  1.1122760523987383e+00  1.1124141075139788e+00  1.1125092289667529e+00  1.1125649286622152e+00  1.1125832686108579e+00  1.0000000000000000e+00  1.0097192076619015e+00  1.0192929577821888e+00  1.0285846199650746e+00  1.0374739213669115e+00  1.0458624390813229e+00  1.0536766748972932e+00  1.0608687547665732e+00  1.0674151062117070e+00  1.0733136464826636e+00  1.0785800672100283e+00  1.0832437559007360e+00  1.0873437887513169e+00  1.0909252990048774e+00  1.0940363981006695e+00  1.0967257202013081e+00  1.0990405817320839e+00  1.1010256966105163e+00  1.1027223608920558e+00  1.1041680117760373e+00  1.1053960693314882e+00  1.1064359797776662e+00  1.1073133927843812e+00  1.1080504193860028e+00  1.1086659301349500e+00  1.1091758642584086e+00  1.1095935295708674e+00  1.1099298798087804e+00  1.1101937611383517e+00  1.1103921231560387e+00  1.1105301920704675e+00  1.1106116052109392e+00  1.1106385067954978e+00  1.0000000000000000e+00  1.0089657299382946e+00  1.0178131872417253e+00  1.0264304642665252e+00  1.0347175957671522e+00  1.0425907986695182e+00  1.0499850728031557e+00  1.0568551291678530e+00  1.0631748289577954e+00  1.0689354572782919e+00  1.0741432161558799e+00  1.0788163143958334e+00  1.0829819779711443e+00  1.0866736262771077e+00  1.0899283757083202e+00  1.0927849558745295e+00  1.0952820626991220e+00  1.0974571290502704e+00  1.0993454664583988e+00  1.1009797180097687e+00  1.1023895591288391e+00  1.1036015862475694e+00  1.1046393404407289e+00  1.1055234218282752e+00  1.1062716594467663e+00  1.1068993094885780e+00  1.1074192618533942e+00  1.1078422407025172e+00  1.1081769891898503e+00  1.1084304319013567e+00  1.1086078109481403e+00  1.1087127933155763e+00  1.1087475481492550e+00  1.0000000000000000e+00  1.0083305228095636e+00  1.0165635951629550e+00  1.0246064526200742e+00  1.0323751976807496e+00  1.0397980862991418e+00  1.0468176880344684e+00  1.0533918598979171e+00  1.0594936230492520e+00  1.0651101374599050e+00  1.0702410257156170e+00  1.0748963075465625e+00  1.0790941824572116e+00  1.0828588524231137e+00  1.0862185225806960e+00  1.0892036648892960e+00  1.0918455841395862e+00  1.0941752904330404e+00  1.0962226578814998e+00  1.0980158346758007e+00  1.0995808629265302e+00  1.1009414656430430e+00  1.1021189609026896e+00  1.1031322680396047e+00  1.1039979763352625e+00  1.1047304523957426e+00  1.1053419676516147e+00  1.1058428319580442e+00  1.1062415230171749e+00  1.1065448043113981e+00  1.1067578265051607e+00  1.1068842089539705e+00  1.1069260991703700e+00  1.0000000000000000e+00  1.0077927657826071e+00  1.0155042176644107e+00  1.0230565531136875e+00  1.0303786558474504e+00  1.0374086606848572e+00  1.0440957330601428e+00  1.0504009992970520e+00  1.0562976658596528e+00  1.0617704437864743e+00  1.0668144416959509e+00  1.0714337076160072e+00  1.0756395918874782e+00  1.0794490783772674e+00  1.0828831973020041e+00  1.0859655969623607e+00  1.0887213185368849e+00  1.0911757906608051e+00  1.0933540399587587e+00  1.0952800998854035e+00  1.0969765922584382e+00  1.0984644524953833e+00  1.0997627694873815e+00  1.1008887130921925e+00  1.1018575254589362e+00  1.1026825561075155e+00  1.1033753243992783e+00  1.1039455964608678e+00  1.1044014666094075e+00  1.1047494358219008e+00  1.1049944818071342e+00  1.1051401168247752e+00  1.1051884306242845e+00  1.0000000000000000e+00  1.0073363226004715e+00  1.0146039565484084e+00  1.0217368862822174e+00  1.0286742118805154e+00  1.0353621675125400e+00  1.0417555842118762e+00  1.0478187383636481e+00  1.0535255973023716e+00  1.0588595301287973e+00  1.0638125896650401e+00  1.0683844893337846e+00  1.0725813990993391e+00  1.0764146718964451e+00  1.0798995912876848e+00  1.0830542071212561e+00  1.0858983023847870e+00  1.0884525137145367e+00  1.0907376114073268e+00  1.0927739326486170e+00  1.0945809537264357e+00  1.0961769825926708e+00  1.0975789514592613e+00  1.0988022893828486e+00  1.0998608563007746e+00  1.1007669221761049e+00  1.1015311773771148e+00  1.1021627628767421e+00  1.1026693111376864e+00  1.1030569905596628e+00  1.1033305480767008e+00  1.1034933459137115e+00  1.1035473896772179e+00  1.0000000000000000e+00  1.0069485680628292e+00  1.0138383996393467e+00  1.0206128235804139e+00  1.0272191378755313e+00  1.0336102132700049e+00  1.0397456979093949e+00  1.0455927726423029e+00  1.0511264548568877e+00  1.0563294897610729e+00  1.0611918975015313e+00  1.0657102609547158e+00  1.0698868432796360e+00  1.0737286188214843e+00  1.0772462888310330e+00  1.0804533378501922e+00  1.0833651701664706e+00  1.0859983504052275e+00  1.0883699593073950e+00  1.0904970655753021e+00  1.0923963074060179e+00  1.0940835726896028e+00  1.0955737643741443e+00  1.0968806366791657e+00  1.0980166881852078e+00  1.0989930989190153e+00  1.0998197000563339e+00  1.1005049665313005e+00  1.1010560245049330e+00  1.1014786672023629e+00  1.1017773740262944e+00  1.1019553290761528e+00  1.1020144362571642e+00  1.0000000000000000e+00  1.0066195500104491e+00  1.0131882503647960e+00  1.0196568705237956e+00  1.0259793027706250e+00  1.0321138497821727e+00  1.0380242215131612e+00  1.0436801994391514e+00  1.0490579597217371e+00  1.0541400765570446e+00  1.0589152496252843e+00  1.0633778137039060e+00  1.0675270942430033e+00  1.0713666712788235e+00  1.0749036073647713e+00  1.0781476852820084e+00  1.0811106900256757e+00  1.0838057584325083e+00  1.0862468098417237e+00  1.0884480629391791e+00  1.0904236376327310e+00  1.0921872363855778e+00  1.0937518966685480e+00  1.0951298047744624e+00  1.0963321608418766e+00  1.0973690852584146e+00  1.0982495573979045e+00  1.0989813786871936e+00  1.0995711531483818e+00  1.1000242797185613e+00  1.1003449517499608e+00  1.1005361601074408e+00  1.1005996971991336e+00  1.0000000000000000e+00  1.0063413816140470e+00  1.0126381812854803e+00  1.0188471053792565e+00  1.0249273529009328e+00  1.0308416615748546e+00  1.0365571389218995e+00  1.0420458438793883e+00  1.0472851080338557e+00  1.0522576071200809e+00  1.0569512107386541e+00  1.0613586499926213e+00  1.0654770487096470e+00  1.0693073646860358e+00  1.0728537840672208e+00  1.0761231058873941e+00  1.0791241462217154e+00  1.0818671834574054e+00  1.0843634586878119e+00  1.0866247387069590e+00  1.0886629438001485e+00  1.0904898385514301e+00  1.0921167811400077e+00  1.0935545249082597e+00  1.0948130651494206e+00  1.0959015238748619e+00  1.0968280655896763e+00  1.0975998376711875e+00  1.0982229296828403e+00  1.0987023467735402e+00  1.0990419931475479e+00  1.0992446624045142e+00  1.0993120323244887e+00  1.0000000000000000e+00  1.0061077951602451e+00  1.0121759877838101e+00  1.0181660168068074e+00  1.0240413418789875e+00  1